ITEM: TIMESTEP
0
ITEM: NUMBER OF ATOMS
904
ITEM: BOX BOUNDS pp pp pp
-6.2000000000000002e+00 2.5800000000000001e+01
-3.0000000000000000e+00 2.7000000000000000e+01
-2.7999999999999998e+00 2.1199999999999999e+01
ITEM: ATOMS id type xs ys zs
1 1 0.0820297 0.0909922 0.11203
5 2 0.0506634 0.103918 0.123826
6 2 0.0845222 0.056376 0.128362
7 2 0.0828028 0.0887838 0.0658221
13 2 0.0818509 0.184104 0.126602
2 1 0.117513 0.12112 0.134591
4 1 0.111988 0.169324 0.112668
8 2 0.11603 0.121526 0.180568
14 2 0.112233 0.17046 0.0663892
231 2 0.0828028 0.0887838 0.315822
238 2 0.112233 0.17046 0.316389
3 1 0.160543 0.10249 0.11638
9 2 0.165138 0.0675947 0.130841
10 2 0.186731 0.122758 0.13338
11 2 0.163877 0.102374 0.0702929
12 2 0.137481 0.191606 0.127437
235 2 0.163877 0.102374 0.320293
15 1 0.33203 0.0909922 0.11203
19 2 0.300663 0.103918 0.123826
20 2 0.334522 0.056376 0.128362
21 2 0.332803 0.0887838 0.0658221
27 2 0.331851 0.184104 0.126602
16 1 0.367513 0.12112 0.134591
18 1 0.361988 0.169324 0.112668
22 2 0.36603 0.121526 0.180568
28 2 0.362233 0.17046 0.0663892
245 2 0.332803 0.0887838 0.315822
252 2 0.362233 0.17046 0.316389
17 1 0.410543 0.10249 0.11638
23 2 0.415138 0.0675947 0.130841
24 2 0.436731 0.122758 0.13338
25 2 0.413877 0.102374 0.0702929
26 2 0.387481 0.191606 0.127437
249 2 0.413877 0.102374 0.320293
57 1 0.0820297 0.340992 0.11203
61 2 0.0506634 0.353918 0.123826
62 2 0.0845222 0.306376 0.128362
63 2 0.0828028 0.338784 0.0658221
69 2 0.0818509 0.434104 0.126602
58 1 0.117513 0.37112 0.134591
60 1 0.111988 0.419324 0.112668
64 2 0.11603 0.371526 0.180568
70 2 0.112233 0.42046 0.0663892
287 2 0.0828028 0.338784 0.315822
294 2 0.112233 0.42046 0.316389
59 1 0.160543 0.35249 0.11638
65 2 0.165138 0.317595 0.130841
66 2 0.186731 0.372758 0.13338
67 2 0.163877 0.352374 0.0702929
68 2 0.137481 0.441606 0.127437
291 2 0.163877 0.352374 0.320293
71 1 0.33203 0.340992 0.11203
75 2 0.300663 0.353918 0.123826
76 2 0.334522 0.306376 0.128362
77 2 0.332803 0.338784 0.0658221
83 2 0.331851 0.434104 0.126602
72 1 0.367513 0.37112 0.134591
74 1 0.361988 0.419324 0.112668
78 2 0.36603 0.371526 0.180568
84 2 0.362233 0.42046 0.0663892
301 2 0.332803 0.338784 0.315822
308 2 0.362233 0.42046 0.316389
73 1 0.410543 0.35249 0.11638
79 2 0.415138 0.317595 0.130841
80 2 0.436731 0.372758 0.13338
81 2 0.413877 0.352374 0.0702929
82 2 0.387481 0.441606 0.127437
305 2 0.413877 0.352374 0.320293
113 1 0.0820297 0.590992 0.11203
117 2 0.0506634 0.603918 0.123826
118 2 0.0845222 0.556376 0.128362
119 2 0.0828028 0.588784 0.0658221
125 2 0.0818509 0.684104 0.126602
114 1 0.117513 0.62112 0.134591
116 1 0.111988 0.669324 0.112668
120 2 0.11603 0.621526 0.180568
126 2 0.112233 0.67046 0.0663892
343 2 0.0828028 0.588784 0.315822
350 2 0.112233 0.67046 0.316389
115 1 0.160543 0.60249 0.11638
121 2 0.165138 0.567595 0.130841
122 2 0.186731 0.622758 0.13338
123 2 0.163877 0.602374 0.0702929
124 2 0.137481 0.691606 0.127437
347 2 0.163877 0.602374 0.320293
127 1 0.33203 0.590992 0.11203
131 2 0.300663 0.603918 0.123826
132 2 0.334522 0.556376 0.128362
133 2 0.332803 0.588784 0.0658221
139 2 0.331851 0.684104 0.126602
128 1 0.367513 0.62112 0.134591
130 1 0.361988 0.669324 0.112668
134 2 0.36603 0.621526 0.180568
140 2 0.362233 0.67046 0.0663892
357 2 0.332803 0.588784 0.315822
364 2 0.362233 0.67046 0.316389
129 1 0.410543 0.60249 0.11638
135 2 0.415138 0.567595 0.130841
136 2 0.436731 0.622758 0.13338
137 2 0.413877 0.602374 0.0702929
138 2 0.387481 0.691606 0.127437
361 2 0.413877 0.602374 0.320293
169 1 0.0820297 0.840992 0.11203
173 2 0.0506634 0.853918 0.123826
174 2 0.0845222 0.806376 0.128362
175 2 0.0828028 0.838784 0.0658221
181 2 0.0818509 0.934104 0.126602
170 1 0.117513 0.87112 0.134591
172 1 0.111988 0.919324 0.112668
176 2 0.11603 0.871526 0.180568
182 2 0.112233 0.92046 0.0663892
399 2 0.0828028 0.838784 0.315822
406 2 0.112233 0.92046 0.316389
171 1 0.160543 0.85249 0.11638
177 2 0.165138 0.817595 0.130841
178 2 0.186731 0.872758 0.13338
179 2 0.163877 0.852374 0.0702929
180 2 0.137481 0.941606 0.127437
403 2 0.163877 0.852374 0.320293
183 1 0.33203 0.840992 0.11203
187 2 0.300663 0.853918 0.123826
188 2 0.334522 0.806376 0.128362
189 2 0.332803 0.838784 0.0658221
195 2 0.331851 0.934104 0.126602
184 1 0.367513 0.87112 0.134591
186 1 0.361988 0.919324 0.112668
190 2 0.36603 0.871526 0.180568
196 2 0.362233 0.92046 0.0663892
413 2 0.332803 0.838784 0.315822
420 2 0.362233 0.92046 0.316389
185 1 0.410543 0.85249 0.11638
191 2 0.415138 0.817595 0.130841
192 2 0.436731 0.872758 0.13338
193 2 0.413877 0.852374 0.0702929
194 2 0.387481 0.941606 0.127437
417 2 0.413877 0.852374 0.320293
225 1 0.0820297 0.0909922 0.36203
229 2 0.0506634 0.103918 0.373826
230 2 0.0845222 0.056376 0.378362
237 2 0.0818509 0.184104 0.376602
226 1 0.117513 0.12112 0.384591
228 1 0.111988 0.169324 0.362668
232 2 0.11603 0.121526 0.430568
449 1 0.0820297 0.0909922 0.61203
453 2 0.0506634 0.103918 0.623826
454 2 0.0845222 0.056376 0.628362
455 2 0.0828028 0.0887838 0.565822
461 2 0.0818509 0.184104 0.626602
450 1 0.117513 0.12112 0.634591
452 1 0.111988 0.169324 0.612668
462 2 0.112233 0.17046 0.566389
227 1 0.160543 0.10249 0.36638
233 2 0.165138 0.0675947 0.380841
234 2 0.186731 0.122758 0.38338
236 2 0.137481 0.191606 0.377437
451 1 0.160543 0.10249 0.61638
457 2 0.165138 0.0675947 0.630841
458 2 0.186731 0.122758 0.63338
459 2 0.163877 0.102374 0.570293
460 2 0.137481 0.191606 0.627437
239 1 0.33203 0.0909922 0.36203
243 2 0.300663 0.103918 0.373826
244 2 0.334522 0.056376 0.378362
251 2 0.331851 0.184104 0.376602
240 1 0.367513 0.12112 0.384591
242 1 0.361988 0.169324 0.362668
246 2 0.36603 0.121526 0.430568
463 1 0.33203 0.0909922 0.61203
467 2 0.300663 0.103918 0.623826
468 2 0.334522 0.056376 0.628362
469 2 0.332803 0.0887838 0.565822
475 2 0.331851 0.184104 0.626602
464 1 0.367513 0.12112 0.634591
466 1 0.361988 0.169324 0.612668
476 2 0.362233 0.17046 0.566389
241 1 0.410543 0.10249 0.36638
247 2 0.415138 0.0675947 0.380841
248 2 0.436731 0.122758 0.38338
250 2 0.387481 0.191606 0.377437
465 1 0.410543 0.10249 0.61638
471 2 0.415138 0.0675947 0.630841
472 2 0.436731 0.122758 0.63338
473 2 0.413877 0.102374 0.570293
474 2 0.387481 0.191606 0.627437
281 1 0.0820297 0.340992 0.36203
285 2 0.0506634 0.353918 0.373826
286 2 0.0845222 0.306376 0.378362
293 2 0.0818509 0.434104 0.376602
282 1 0.117513 0.37112 0.384591
284 1 0.111988 0.419324 0.362668
288 2 0.11603 0.371526 0.430568
505 1 0.0820297 0.340992 0.61203
509 2 0.0506634 0.353918 0.623826
510 2 0.0845222 0.306376 0.628362
511 2 0.0828028 0.338784 0.565822
517 2 0.0818509 0.434104 0.626602
506 1 0.117513 0.37112 0.634591
508 1 0.111988 0.419324 0.612668
518 2 0.112233 0.42046 0.566389
283 1 0.160543 0.35249 0.36638
289 2 0.165138 0.317595 0.380841
290 2 0.186731 0.372758 0.38338
292 2 0.137481 0.441606 0.377437
507 1 0.160543 0.35249 0.61638
513 2 0.165138 0.317595 0.630841
514 2 0.186731 0.372758 0.63338
515 2 0.163877 0.352374 0.570293
516 2 0.137481 0.441606 0.627437
295 1 0.33203 0.340992 0.36203
299 2 0.300663 0.353918 0.373826
300 2 0.334522 0.306376 0.378362
307 2 0.331851 0.434104 0.376602
296 1 0.367513 0.37112 0.384591
298 1 0.361988 0.419324 0.362668
302 2 0.36603 0.371526 0.430568
519 1 0.33203 0.340992 0.61203
523 2 0.300663 0.353918 0.623826
524 2 0.334522 0.306376 0.628362
525 2 0.332803 0.338784 0.565822
531 2 0.331851 0.434104 0.626602
520 1 0.367513 0.37112 0.634591
522 1 0.361988 0.419324 0.612668
532 2 0.362233 0.42046 0.566389
297 1 0.410543 0.35249 0.36638
303 2 0.415138 0.317595 0.380841
304 2 0.436731 0.372758 0.38338
306 2 0.387481 0.441606 0.377437
521 1 0.410543 0.35249 0.61638
527 2 0.415138 0.317595 0.630841
528 2 0.436731 0.372758 0.63338
529 2 0.413877 0.352374 0.570293
530 2 0.387481 0.441606 0.627437
897 1 0.472422 0.4567 0.488229
337 1 0.0820297 0.590992 0.36203
341 2 0.0506634 0.603918 0.373826
342 2 0.0845222 0.556376 0.378362
349 2 0.0818509 0.684104 0.376602
338 1 0.117513 0.62112 0.384591
340 1 0.111988 0.669324 0.362668
344 2 0.11603 0.621526 0.430568
561 1 0.0820297 0.590992 0.61203
565 2 0.0506634 0.603918 0.623826
566 2 0.0845222 0.556376 0.628362
567 2 0.0828028 0.588784 0.565822
573 2 0.0818509 0.684104 0.626602
562 1 0.117513 0.62112 0.634591
564 1 0.111988 0.669324 0.612668
574 2 0.112233 0.67046 0.566389
339 1 0.160543 0.60249 0.36638
345 2 0.165138 0.567595 0.380841
346 2 0.186731 0.622758 0.38338
348 2 0.137481 0.691606 0.377437
563 1 0.160543 0.60249 0.61638
569 2 0.165138 0.567595 0.630841
570 2 0.186731 0.622758 0.63338
571 2 0.163877 0.602374 0.570293
572 2 0.137481 0.691606 0.627437
351 1 0.33203 0.590992 0.36203
355 2 0.300663 0.603918 0.373826
356 2 0.334522 0.556376 0.378362
363 2 0.331851 0.684104 0.376602
352 1 0.367513 0.62112 0.384591
354 1 0.361988 0.669324 0.362668
358 2 0.36603 0.621526 0.430568
575 1 0.33203 0.590992 0.61203
579 2 0.300663 0.603918 0.623826
580 2 0.334522 0.556376 0.628362
581 2 0.332803 0.588784 0.565822
587 2 0.331851 0.684104 0.626602
576 1 0.367513 0.62112 0.634591
578 1 0.361988 0.669324 0.612668
588 2 0.362233 0.67046 0.566389
353 1 0.410543 0.60249 0.36638
359 2 0.415138 0.567595 0.380841
360 2 0.436731 0.622758 0.38338
362 2 0.387481 0.691606 0.377437
577 1 0.410543 0.60249 0.61638
583 2 0.415138 0.567595 0.630841
584 2 0.436731 0.622758 0.63338
585 2 0.413877 0.602374 0.570293
586 2 0.387481 0.691606 0.627437
898 1 0.472422 0.51615 0.562542
393 1 0.0820297 0.840992 0.36203
397 2 0.0506634 0.853918 0.373826
398 2 0.0845222 0.806376 0.378362
405 2 0.0818509 0.934104 0.376602
394 1 0.117513 0.87112 0.384591
396 1 0.111988 0.919324 0.362668
400 2 0.11603 0.871526 0.430568
617 1 0.0820297 0.840992 0.61203
621 2 0.0506634 0.853918 0.623826
622 2 0.0845222 0.806376 0.628362
623 2 0.0828028 0.838784 0.565822
629 2 0.0818509 0.934104 0.626602
618 1 0.117513 0.87112 0.634591
620 1 0.111988 0.919324 0.612668
630 2 0.112233 0.92046 0.566389
395 1 0.160543 0.85249 0.36638
401 2 0.165138 0.817595 0.380841
402 2 0.186731 0.872758 0.38338
404 2 0.137481 0.941606 0.377437
619 1 0.160543 0.85249 0.61638
625 2 0.165138 0.817595 0.630841
626 2 0.186731 0.872758 0.63338
627 2 0.163877 0.852374 0.570293
628 2 0.137481 0.941606 0.627437
407 1 0.33203 0.840992 0.36203
411 2 0.300663 0.853918 0.373826
412 2 0.334522 0.806376 0.378362
419 2 0.331851 0.934104 0.376602
408 1 0.367513 0.87112 0.384591
410 1 0.361988 0.919324 0.362668
414 2 0.36603 0.871526 0.430568
631 1 0.33203 0.840992 0.61203
635 2 0.300663 0.853918 0.623826
636 2 0.334522 0.806376 0.628362
637 2 0.332803 0.838784 0.565822
643 2 0.331851 0.934104 0.626602
632 1 0.367513 0.87112 0.634591
634 1 0.361988 0.919324 0.612668
644 2 0.362233 0.92046 0.566389
409 1 0.410543 0.85249 0.36638
415 2 0.415138 0.817595 0.380841
416 2 0.436731 0.872758 0.38338
418 2 0.387481 0.941606 0.377437
633 1 0.410543 0.85249 0.61638
639 2 0.415138 0.817595 0.630841
640 2 0.436731 0.872758 0.63338
641 2 0.413877 0.852374 0.570293
642 2 0.387481 0.941606 0.627437
456 2 0.11603 0.121526 0.680568
673 1 0.0820297 0.0909922 0.86203
677 2 0.0506634 0.103918 0.873826
678 2 0.0845222 0.056376 0.878362
679 2 0.0828028 0.0887838 0.815822
685 2 0.0818509 0.184104 0.876602
674 1 0.117513 0.12112 0.884591
676 1 0.111988 0.169324 0.862668
680 2 0.11603 0.121526 0.930568
686 2 0.112233 0.17046 0.816389
675 1 0.160543 0.10249 0.86638
681 2 0.165138 0.0675947 0.880841
682 2 0.186731 0.122758 0.88338
683 2 0.163877 0.102374 0.820293
684 2 0.137481 0.191606 0.877437
470 2 0.36603 0.121526 0.680568
687 1 0.33203 0.0909922 0.86203
691 2 0.300663 0.103918 0.873826
692 2 0.334522 0.056376 0.878362
693 2 0.332803 0.0887838 0.815822
699 2 0.331851 0.184104 0.876602
688 1 0.367513 0.12112 0.884591
690 1 0.361988 0.169324 0.862668
694 2 0.36603 0.121526 0.930568
700 2 0.362233 0.17046 0.816389
689 1 0.410543 0.10249 0.86638
695 2 0.415138 0.0675947 0.880841
696 2 0.436731 0.122758 0.88338
697 2 0.413877 0.102374 0.820293
698 2 0.387481 0.191606 0.877437
512 2 0.11603 0.371526 0.680568
729 1 0.0820297 0.340992 0.86203
733 2 0.0506634 0.353918 0.873826
734 2 0.0845222 0.306376 0.878362
735 2 0.0828028 0.338784 0.815822
741 2 0.0818509 0.434104 0.876602
730 1 0.117513 0.37112 0.884591
732 1 0.111988 0.419324 0.862668
736 2 0.11603 0.371526 0.930568
742 2 0.112233 0.42046 0.816389
731 1 0.160543 0.35249 0.86638
737 2 0.165138 0.317595 0.880841
738 2 0.186731 0.372758 0.88338
739 2 0.163877 0.352374 0.820293
740 2 0.137481 0.441606 0.877437
526 2 0.36603 0.371526 0.680568
743 1 0.33203 0.340992 0.86203
747 2 0.300663 0.353918 0.873826
748 2 0.334522 0.306376 0.878362
749 2 0.332803 0.338784 0.815822
755 2 0.331851 0.434104 0.876602
744 1 0.367513 0.37112 0.884591
746 1 0.361988 0.419324 0.862668
750 2 0.36603 0.371526 0.930568
756 2 0.362233 0.42046 0.816389
745 1 0.410543 0.35249 0.86638
751 2 0.415138 0.317595 0.880841
752 2 0.436731 0.372758 0.88338
753 2 0.413877 0.352374 0.820293
754 2 0.387481 0.441606 0.877437
568 2 0.11603 0.621526 0.680568
785 1 0.0820297 0.590992 0.86203
789 2 0.0506634 0.603918 0.873826
790 2 0.0845222 0.556376 0.878362
791 2 0.0828028 0.588784 0.815822
797 2 0.0818509 0.684104 0.876602
786 1 0.117513 0.62112 0.884591
788 1 0.111988 0.669324 0.862668
792 2 0.11603 0.621526 0.930568
798 2 0.112233 0.67046 0.816389
787 1 0.160543 0.60249 0.86638
793 2 0.165138 0.567595 0.880841
794 2 0.186731 0.622758 0.88338
795 2 0.163877 0.602374 0.820293
796 2 0.137481 0.691606 0.877437
582 2 0.36603 0.621526 0.680568
799 1 0.33203 0.590992 0.86203
803 2 0.300663 0.603918 0.873826
804 2 0.334522 0.556376 0.878362
805 2 0.332803 0.588784 0.815822
811 2 0.331851 0.684104 0.876602
800 1 0.367513 0.62112 0.884591
802 1 0.361988 0.669324 0.862668
806 2 0.36603 0.621526 0.930568
812 2 0.362233 0.67046 0.816389
801 1 0.410543 0.60249 0.86638
807 2 0.415138 0.567595 0.880841
808 2 0.436731 0.622758 0.88338
809 2 0.413877 0.602374 0.820293
810 2 0.387481 0.691606 0.877437
624 2 0.11603 0.871526 0.680568
841 1 0.0820297 0.840992 0.86203
845 2 0.0506634 0.853918 0.873826
846 2 0.0845222 0.806376 0.878362
847 2 0.0828028 0.838784 0.815822
853 2 0.0818509 0.934104 0.876602
842 1 0.117513 0.87112 0.884591
844 1 0.111988 0.919324 0.862668
848 2 0.11603 0.871526 0.930568
854 2 0.112233 0.92046 0.816389
843 1 0.160543 0.85249 0.86638
849 2 0.165138 0.817595 0.880841
850 2 0.186731 0.872758 0.88338
851 2 0.163877 0.852374 0.820293
852 2 0.137481 0.941606 0.877437
638 2 0.36603 0.871526 0.680568
855 1 0.33203 0.840992 0.86203
859 2 0.300663 0.853918 0.873826
860 2 0.334522 0.806376 0.878362
861 2 0.332803 0.838784 0.815822
867 2 0.331851 0.934104 0.876602
856 1 0.367513 0.87112 0.884591
858 1 0.361988 0.919324 0.862668
862 2 0.36603 0.871526 0.930568
868 2 0.362233 0.92046 0.816389
857 1 0.410543 0.85249 0.86638
863 2 0.415138 0.817595 0.880841
864 2 0.436731 0.872758 0.88338
865 2 0.413877 0.852374 0.820293
866 2 0.387481 0.941606 0.877437
29 1 0.58203 0.0909922 0.11203
33 2 0.550663 0.103918 0.123826
34 2 0.584522 0.056376 0.128362
35 2 0.582803 0.0887838 0.0658221
41 2 0.581851 0.184104 0.126602
30 1 0.617513 0.12112 0.134591
32 1 0.611988 0.169324 0.112668
36 2 0.61603 0.121526 0.180568
42 2 0.612233 0.17046 0.0663892
259 2 0.582803 0.0887838 0.315822
266 2 0.612233 0.17046 0.316389
31 1 0.660543 0.10249 0.11638
37 2 0.665138 0.0675947 0.130841
38 2 0.686731 0.122758 0.13338
39 2 0.663877 0.102374 0.0702929
40 2 0.637481 0.191606 0.127437
263 2 0.663877 0.102374 0.320293
43 1 0.83203 0.0909922 0.11203
47 2 0.800663 0.103918 0.123826
48 2 0.834522 0.056376 0.128362
49 2 0.832803 0.0887838 0.0658221
55 2 0.831851 0.184104 0.126602
44 1 0.867513 0.12112 0.134591
46 1 0.861988 0.169324 0.112668
50 2 0.86603 0.121526 0.180568
56 2 0.862233 0.17046 0.0663892
273 2 0.832803 0.0887838 0.315822
280 2 0.862233 0.17046 0.316389
45 1 0.910542 0.10249 0.11638
51 2 0.915138 0.0675947 0.130841
52 2 0.936731 0.122758 0.13338
53 2 0.913877 0.102374 0.0702929
54 2 0.887481 0.191606 0.127437
277 2 0.913877 0.102374 0.320293
85 1 0.58203 0.340992 0.11203
89 2 0.550663 0.353918 0.123826
90 2 0.584522 0.306376 0.128362
91 2 0.582803 0.338784 0.0658221
97 2 0.581851 0.434104 0.126602
86 1 0.617513 0.37112 0.134591
88 1 0.611988 0.419324 0.112668
92 2 0.61603 0.371526 0.180568
98 2 0.612233 0.42046 0.0663892
315 2 0.582803 0.338784 0.315822
322 2 0.612233 0.42046 0.316389
87 1 0.660543 0.35249 0.11638
93 2 0.665138 0.317595 0.130841
94 2 0.686731 0.372758 0.13338
95 2 0.663877 0.352374 0.0702929
96 2 0.637481 0.441606 0.127437
319 2 0.663877 0.352374 0.320293
99 1 0.83203 0.340992 0.11203
103 2 0.800663 0.353918 0.123826
104 2 0.834522 0.306376 0.128362
105 2 0.832803 0.338784 0.0658221
111 2 0.831851 0.434104 0.126602
100 1 0.867513 0.37112 0.134591
102 1 0.861988 0.419324 0.112668
106 2 0.86603 0.371526 0.180568
112 2 0.862233 0.42046 0.0663892
329 2 0.832803 0.338784 0.315822
336 2 0.862233 0.42046 0.316389
101 1 0.910542 0.35249 0.11638
107 2 0.915138 0.317595 0.130841
108 2 0.936731 0.372758 0.13338
109 2 0.913877 0.352374 0.0702929
110 2 0.887481 0.441606 0.127437
333 2 0.913877 0.352374 0.320293
141 1 0.58203 0.590992 0.11203
145 2 0.550663 0.603918 0.123826
146 2 0.584522 0.556376 0.128362
147 2 0.582803 0.588784 0.0658221
153 2 0.581851 0.684104 0.126602
142 1 0.617513 0.62112 0.134591
144 1 0.611988 0.669324 0.112668
148 2 0.61603 0.621526 0.180568
154 2 0.612233 0.67046 0.0663892
371 2 0.582803 0.588784 0.315822
378 2 0.612233 0.67046 0.316389
143 1 0.660543 0.60249 0.11638
149 2 0.665138 0.567595 0.130841
150 2 0.686731 0.622758 0.13338
151 2 0.663877 0.602374 0.0702929
152 2 0.637481 0.691606 0.127437
375 2 0.663877 0.602374 0.320293
155 1 0.83203 0.590992 0.11203
159 2 0.800663 0.603918 0.123826
160 2 0.834522 0.556376 0.128362
161 2 0.832803 0.588784 0.0658221
167 2 0.831851 0.684104 0.126602
156 1 0.867513 0.62112 0.134591
158 1 0.861988 0.669324 0.112668
162 2 0.86603 0.621526 0.180568
168 2 0.862233 0.67046 0.0663892
385 2 0.832803 0.588784 0.315822
392 2 0.862233 0.67046 0.316389
157 1 0.910542 0.60249 0.11638
163 2 0.915138 0.567595 0.130841
164 2 0.936731 0.622758 0.13338
165 2 0.913877 0.602374 0.0702929
166 2 0.887481 0.691606 0.127437
389 2 0.913877 0.602374 0.320293
197 1 0.58203 0.840992 0.11203
201 2 0.550663 0.853918 0.123826
202 2 0.584522 0.806376 0.128362
203 2 0.582803 0.838784 0.0658221
209 2 0.581851 0.934104 0.126602
198 1 0.617513 0.87112 0.134591
200 1 0.611988 0.919324 0.112668
204 2 0.61603 0.871526 0.180568
210 2 0.612233 0.92046 0.0663892
427 2 0.582803 0.838784 0.315822
434 2 0.612233 0.92046 0.316389
199 1 0.660543 0.85249 0.11638
205 2 0.665138 0.817595 0.130841
206 2 0.686731 0.872758 0.13338
207 2 0.663877 0.852374 0.0702929
208 2 0.637481 0.941606 0.127437
431 2 0.663877 0.852374 0.320293
211 1 0.83203 0.840992 0.11203
215 2 0.800663 0.853918 0.123826
216 2 0.834522 0.806376 0.128362
217 2 0.832803 0.838784 0.0658221
223 2 0.831851 0.934104 0.126602
212 1 0.867513 0.87112 0.134591
214 1 0.861988 0.919324 0.112668
218 2 0.86603 0.871526 0.180568
224 2 0.862233 0.92046 0.0663892
441 2 0.832803 0.838784 0.315822
448 2 0.862233 0.92046 0.316389
213 1 0.910542 0.85249 0.11638
219 2 0.915138 0.817595 0.130841
220 2 0.936731 0.872758 0.13338
221 2 0.913877 0.852374 0.0702929
222 2 0.887481 0.941606 0.127437
445 2 0.913877 0.852374 0.320293
253 1 0.58203 0.0909922 0.36203
257 2 0.550663 0.103918 0.373826
258 2 0.584522 0.056376 0.378362
265 2 0.581851 0.184104 0.376602
254 1 0.617513 0.12112 0.384591
256 1 0.611988 0.169324 0.362668
260 2 0.61603 0.121526 0.430568
477 1 0.58203 0.0909922 0.61203
481 2 0.550663 0.103918 0.623826
482 2 0.584522 0.056376 0.628362
483 2 0.582803 0.0887838 0.565822
489 2 0.581851 0.184104 0.626602
478 1 0.617513 0.12112 0.634591
480 1 0.611988 0.169324 0.612668
490 2 0.612233 0.17046 0.566389
255 1 0.660543 0.10249 0.36638
261 2 0.665138 0.0675947 0.380841
262 2 0.686731 0.122758 0.38338
264 2 0.637481 0.191606 0.377437
479 1 0.660543 0.10249 0.61638
485 2 0.665138 0.0675947 0.630841
486 2 0.686731 0.122758 0.63338
487 2 0.663877 0.102374 0.570293
488 2 0.637481 0.191606 0.627437
267 1 0.83203 0.0909922 0.36203
271 2 0.800663 0.103918 0.373826
272 2 0.834522 0.056376 0.378362
279 2 0.831851 0.184104 0.376602
268 1 0.867513 0.12112 0.384591
270 1 0.861988 0.169324 0.362668
274 2 0.86603 0.121526 0.430568
491 1 0.83203 0.0909922 0.61203
495 2 0.800663 0.103918 0.623826
496 2 0.834522 0.056376 0.628362
497 2 0.832803 0.0887838 0.565822
503 2 0.831851 0.184104 0.626602
492 1 0.867513 0.12112 0.634591
494 1 0.861988 0.169324 0.612668
504 2 0.862233 0.17046 0.566389
269 1 0.910542 0.10249 0.36638
275 2 0.915138 0.0675947 0.380841
276 2 0.936731 0.122758 0.38338
278 2 0.887481 0.191606 0.377437
493 1 0.910542 0.10249 0.61638
499 2 0.915138 0.0675947 0.630841
500 2 0.936731 0.122758 0.63338
501 2 0.913877 0.102374 0.570293
502 2 0.887481 0.191606 0.627437
309 1 0.58203 0.340992 0.36203
313 2 0.550663 0.353918 0.373826
314 2 0.584522 0.306376 0.378362
321 2 0.581851 0.434104 0.376602
310 1 0.617513 0.37112 0.384591
312 1 0.611988 0.419324 0.362668
316 2 0.61603 0.371526 0.430568
533 1 0.58203 0.340992 0.61203
537 2 0.550663 0.353918 0.623826
538 2 0.584522 0.306376 0.628362
539 2 0.582803 0.338784 0.565822
545 2 0.581851 0.434104 0.626602
534 1 0.617513 0.37112 0.634591
536 1 0.611988 0.419324 0.612668
546 2 0.612233 0.42046 0.566389
311 1 0.660543 0.35249 0.36638
317 2 0.665138 0.317595 0.380841
318 2 0.686731 0.372758 0.38338
320 2 0.637481 0.441606 0.377437
535 1 0.660543 0.35249 0.61638
541 2 0.665138 0.317595 0.630841
542 2 0.686731 0.372758 0.63338
543 2 0.663877 0.352374 0.570293
544 2 0.637481 0.441606 0.627437
899 1 0.500289 0.486425 0.525385
902 1 0.556023 0.486425 0.451073
904 1 0.528156 0.4567 0.562542
323 1 0.83203 0.340992 0.36203
327 2 0.800663 0.353918 0.373826
328 2 0.834522 0.306376 0.378362
335 2 0.831851 0.434104 0.376602
324 1 0.867513 0.37112 0.384591
326 1 0.861988 0.419324 0.362668
330 2 0.86603 0.371526 0.430568
547 1 0.83203 0.340992 0.61203
551 2 0.800663 0.353918 0.623826
552 2 0.834522 0.306376 0.628362
553 2 0.832803 0.338784 0.565822
559 2 0.831851 0.434104 0.626602
548 1 0.867513 0.37112 0.634591
550 1 0.861988 0.419324 0.612668
560 2 0.862233 0.42046 0.566389
325 1 0.910542 0.35249 0.36638
331 2 0.915138 0.317595 0.380841
332 2 0.936731 0.372758 0.38338
334 2 0.887481 0.441606 0.377437
549 1 0.910542 0.35249 0.61638
555 2 0.915138 0.317595 0.630841
556 2 0.936731 0.372758 0.63338
557 2 0.913877 0.352374 0.570293
558 2 0.887481 0.441606 0.627437
365 1 0.58203 0.590992 0.36203
369 2 0.550663 0.603918 0.373826
370 2 0.584522 0.556376 0.378362
377 2 0.581851 0.684104 0.376602
366 1 0.617513 0.62112 0.384591
368 1 0.611988 0.669324 0.362668
372 2 0.61603 0.621526 0.430568
589 1 0.58203 0.590992 0.61203
593 2 0.550663 0.603918 0.623826
594 2 0.584522 0.556376 0.628362
595 2 0.582803 0.588784 0.565822
601 2 0.581851 0.684104 0.626602
590 1 0.617513 0.62112 0.634591
592 1 0.611988 0.669324 0.612668
602 2 0.612233 0.67046 0.566389
367 1 0.660543 0.60249 0.36638
373 2 0.665138 0.567595 0.380841
374 2 0.686731 0.622758 0.38338
376 2 0.637481 0.691606 0.377437
591 1 0.660543 0.60249 0.61638
597 2 0.665138 0.567595 0.630841
598 2 0.686731 0.622758 0.63338
599 2 0.663877 0.602374 0.570293
600 2 0.637481 0.691606 0.627437
900 1 0.500289 0.545875 0.451073
901 1 0.528156 0.51615 0.488229
903 1 0.556023 0.545875 0.525385
379 1 0.83203 0.590992 0.36203
383 2 0.800663 0.603918 0.373826
384 2 0.834522 0.556376 0.378362
391 2 0.831851 0.684104 0.376602
380 1 0.867513 0.62112 0.384591
382 1 0.861988 0.669324 0.362668
386 2 0.86603 0.621526 0.430568
603 1 0.83203 0.590992 0.61203
607 2 0.800663 0.603918 0.623826
608 2 0.834522 0.556376 0.628362
609 2 0.832803 0.588784 0.565822
615 2 0.831851 0.684104 0.626602
604 1 0.867513 0.62112 0.634591
606 1 0.861988 0.669324 0.612668
616 2 0.862233 0.67046 0.566389
381 1 0.910542 0.60249 0.36638
387 2 0.915138 0.567595 0.380841
388 2 0.936731 0.622758 0.38338
390 2 0.887481 0.691606 0.377437
605 1 0.910542 0.60249 0.61638
611 2 0.915138 0.567595 0.630841
612 2 0.936731 0.622758 0.63338
613 2 0.913877 0.602374 0.570293
614 2 0.887481 0.691606 0.627437
421 1 0.58203 0.840992 0.36203
425 2 0.550663 0.853918 0.373826
426 2 0.584522 0.806376 0.378362
433 2 0.581851 0.934104 0.376602
422 1 0.617513 0.87112 0.384591
424 1 0.611988 0.919324 0.362668
428 2 0.61603 0.871526 0.430568
645 1 0.58203 0.840992 0.61203
649 2 0.550663 0.853918 0.623826
650 2 0.584522 0.806376 0.628362
651 2 0.582803 0.838784 0.565822
657 2 0.581851 0.934104 0.626602
646 1 0.617513 0.87112 0.634591
648 1 0.611988 0.919324 0.612668
658 2 0.612233 0.92046 0.566389
423 1 0.660543 0.85249 0.36638
429 2 0.665138 0.817595 0.380841
430 2 0.686731 0.872758 0.38338
432 2 0.637481 0.941606 0.377437
647 1 0.660543 0.85249 0.61638
653 2 0.665138 0.817595 0.630841
654 2 0.686731 0.872758 0.63338
655 2 0.663877 0.852374 0.570293
656 2 0.637481 0.941606 0.627437
435 1 0.83203 0.840992 0.36203
439 2 0.800663 0.853918 0.373826
440 2 0.834522 0.806376 0.378362
447 2 0.831851 0.934104 0.376602
436 1 0.867513 0.87112 0.384591
438 1 0.861988 0.919324 0.362668
442 2 0.86603 0.871526 0.430568
659 1 0.83203 0.840992 0.61203
663 2 0.800663 0.853918 0.623826
664 2 0.834522 0.806376 0.628362
665 2 0.832803 0.838784 0.565822
671 2 0.831851 0.934104 0.626602
660 1 0.867513 0.87112 0.634591
662 1 0.861988 0.919324 0.612668
672 2 0.862233 0.92046 0.566389
437 1 0.910542 0.85249 0.36638
443 2 0.915138 0.817595 0.380841
444 2 0.936731 0.872758 0.38338
446 2 0.887481 0.941606 0.377437
661 1 0.910542 0.85249 0.61638
667 2 0.915138 0.817595 0.630841
668 2 0.936731 0.872758 0.63338
669 2 0.913877 0.852374 0.570293
670 2 0.887481 0.941606 0.627437
484 2 0.61603 0.121526 0.680568
701 1 0.58203 0.0909922 0.86203
705 2 0.550663 0.103918 0.873826
706 2 0.584522 0.056376 0.878362
707 2 0.582803 0.0887838 0.815822
713 2 0.581851 0.184104 0.876602
702 1 0.617513 0.12112 0.884591
704 1 0.611988 0.169324 0.862668
708 2 0.61603 0.121526 0.930568
714 2 0.612233 0.17046 0.816389
703 1 0.660543 0.10249 0.86638
709 2 0.665138 0.0675947 0.880841
710 2 0.686731 0.122758 0.88338
711 2 0.663877 0.102374 0.820293
712 2 0.637481 0.191606 0.877437
498 2 0.86603 0.121526 0.680568
715 1 0.83203 0.0909922 0.86203
719 2 0.800663 0.103918 0.873826
720 2 0.834522 0.056376 0.878362
721 2 0.832803 0.0887838 0.815822
727 2 0.831851 0.184104 0.876602
716 1 0.867513 0.12112 0.884591
718 1 0.861988 0.169324 0.862668
722 2 0.86603 0.121526 0.930568
728 2 0.862233 0.17046 0.816389
717 1 0.910542 0.10249 0.86638
723 2 0.915138 0.0675947 0.880841
724 2 0.936731 0.122758 0.88338
725 2 0.913877 0.102374 0.820293
726 2 0.887481 0.191606 0.877437
540 2 0.61603 0.371526 0.680568
757 1 0.58203 0.340992 0.86203
761 2 0.550663 0.353918 0.873826
762 2 0.584522 0.306376 0.878362
763 2 0.582803 0.338784 0.815822
769 2 0.581851 0.434104 0.876602
758 1 0.617513 0.37112 0.884591
760 1 0.611988 0.419324 0.862668
764 2 0.61603 0.371526 0.930568
770 2 0.612233 0.42046 0.816389
759 1 0.660543 0.35249 0.86638
765 2 0.665138 0.317595 0.880841
766 2 0.686731 0.372758 0.88338
767 2 0.663877 0.352374 0.820293
768 2 0.637481 0.441606 0.877437
554 2 0.86603 0.371526 0.680568
771 1 0.83203 0.340992 0.86203
775 2 0.800663 0.353918 0.873826
776 2 0.834522 0.306376 0.878362
777 2 0.832803 0.338784 0.815822
783 2 0.831851 0.434104 0.876602
772 1 0.867513 0.37112 0.884591
774 1 0.861988 0.419324 0.862668
778 2 0.86603 0.371526 0.930568
784 2 0.862233 0.42046 0.816389
773 1 0.910542 0.35249 0.86638
779 2 0.915138 0.317595 0.880841
780 2 0.936731 0.372758 0.88338
781 2 0.913877 0.352374 0.820293
782 2 0.887481 0.441606 0.877437
596 2 0.61603 0.621526 0.680568
813 1 0.58203 0.590992 0.86203
817 2 0.550663 0.603918 0.873826
818 2 0.584522 0.556376 0.878362
819 2 0.582803 0.588784 0.815822
825 2 0.581851 0.684104 0.876602
814 1 0.617513 0.62112 0.884591
816 1 0.611988 0.669324 0.862668
820 2 0.61603 0.621526 0.930568
826 2 0.612233 0.67046 0.816389
815 1 0.660543 0.60249 0.86638
821 2 0.665138 0.567595 0.880841
822 2 0.686731 0.622758 0.88338
823 2 0.663877 0.602374 0.820293
824 2 0.637481 0.691606 0.877437
610 2 0.86603 0.621526 0.680568
827 1 0.83203 0.590992 0.86203
831 2 0.800663 0.603918 0.873826
832 2 0.834522 0.556376 0.878362
833 2 0.832803 0.588784 0.815822
839 2 0.831851 0.684104 0.876602
828 1 0.867513 0.62112 0.884591
830 1 0.861988 0.669324 0.862668
834 2 0.86603 0.621526 0.930568
840 2 0.862233 0.67046 0.816389
829 1 0.910542 0.60249 0.86638
835 2 0.915138 0.567595 0.880841
836 2 0.936731 0.622758 0.88338
837 2 0.913877 0.602374 0.820293
838 2 0.887481 0.691606 0.877437
652 2 0.61603 0.871526 0.680568
869 1 0.58203 0.840992 0.86203
873 2 0.550663 0.853918 0.873826
874 2 0.584522 0.806376 0.878362
875 2 0.582803 0.838784 0.815822
881 2 0.581851 0.934104 0.876602
870 1 0.617513 0.87112 0.884591
872 1 0.611988 0.919324 0.862668
876 2 0.61603 0.871526 0.930568
882 2 0.612233 0.92046 0.816389
871 1 0.660543 0.85249 0.86638
877 2 0.665138 0.817595 0.880841
878 2 0.686731 0.872758 0.88338
879 2 0.663877 0.852374 0.820293
880 2 0.637481 0.941606 0.877437
666 2 0.86603 0.871526 0.680568
883 1 0.83203 0.840992 0.86203
887 2 0.800663 0.853918 0.873826
888 2 0.834522 0.806376 0.878362
889 2 0.832803 0.838784 0.815822
895 2 0.831851 0.934104 0.876602
884 1 0.867513 0.87112 0.884591
886 1 0.861988 0.919324 0.862668
890 2 0.86603 0.871526 0.930568
896 2 0.862233 0.92046 0.816389
885 1 0.910542 0.85249 0.86638
891 2 0.915138 0.817595 0.880841
892 2 0.936731 0.872758 0.88338
893 2 0.913877 0.852374 0.820293
894 2 0.887481 0.941606 0.877437
ITEM: TIMESTEP
1000
ITEM: NUMBER OF ATOMS
904
ITEM: BOX BOUNDS pp pp pp
-6.2000000000000002e+00 2.5800000000000001e+01
-3.0000000000000000e+00 2.7000000000000000e+01
-2.7999999999999998e+00 2.1199999999999999e+01
ITEM: ATOMS id type xs ys zs
1 1 0.0806556 0.0836163 0.109185
5 2 0.0493966 0.0928524 0.118773
6 2 0.08518 0.0489951 0.120716